unknown system                          
   5.15812523283644     
     1.500000    0.000000    1.500000
     1.500000    1.500000    0.000000
     0.000000    1.500000    1.500000
   Li   Cl
    27    26
Direct
  0.000000  0.000000  0.000000
  0.000000  0.000000  0.333548
  0.000000  0.000000  0.666452
  0.000000  0.333548  0.000000
  0.999399  0.333534  0.333534
  0.000000  0.333548  0.666452
  0.000000  0.666452  0.000000
  0.000000  0.666452  0.333548
  0.000601  0.666466  0.666466
  0.333548  0.000000  0.000000
  0.333534  0.999399  0.333534
  0.333548  0.000000  0.666452
  0.333534  0.333534  0.999399
  0.333534  0.333534  0.333534
  0.331496  0.331496  0.668504
  0.333548  0.666452  0.000000
  0.331496  0.668504  0.331496
  0.331496  0.668504  0.668504
  0.666452  0.000000  0.000000
  0.666452  0.000000  0.333548
  0.666466  0.000601  0.666466
  0.666452  0.333548  0.000000
  0.668504  0.331496  0.331496
  0.668504  0.331496  0.668504
  0.666466  0.666466  0.000601
  0.668504  0.668504  0.331496
  0.666466  0.666466  0.666466
  0.166646  0.166646  0.166646
  0.166646  0.166646  0.500062
  0.166641  0.166641  0.833359
  0.166646  0.500062  0.166646
  0.168477  0.500000  0.500000
  0.168477  0.500000  0.831523
  0.166641  0.833359  0.166641
  0.168477  0.831523  0.500000
  0.166641  0.833359  0.833359
  0.500062  0.166646  0.166646
  0.500000  0.168477  0.500000
  0.500000  0.168477  0.831523
  0.500000  0.500000  0.168477
  0.500000  0.500000  0.831523
  0.500000  0.831523  0.168477
  0.500000  0.831523  0.500000
  0.499938  0.833354  0.833354
  0.833359  0.166641  0.166641
  0.831523  0.168477  0.500000
  0.833359  0.166641  0.833359
  0.831523  0.500000  0.168477
  0.831523  0.500000  0.500000
  0.833354  0.499938  0.833354
  0.833359  0.833359  0.166641
  0.833354  0.833354  0.499938
  0.833354  0.833354  0.833354
 
  10  10  10
 0.12243538616E+02 0.12541488970E+02 0.13388153215E+02 0.14654077943E+02 0.16164042467E+02
 0.17752984064E+02 0.19323382320E+02 0.20877279462E+02 0.22504225806E+02 0.24329304034E+02
 0.26446898656E+02 0.28871580655E+02 0.31526091944E+02 0.34267173749E+02 0.36936796753E+02
 0.39435405164E+02 0.41717978560E+02 0.43767235323E+02 0.45576631734E+02 0.47134367682E+02
 0.48417506260E+02 0.49396413084E+02 0.50043330951E+02 0.50338868063E+02 0.50274355336E+02
 0.49851849274E+02 0.49084006180E+02 0.47993561513E+02 0.46609944118E+02 0.44961842003E+02
 0.43069118284E+02 0.40941061976E+02 0.38585813098E+02 0.36027775794E+02 0.33323934820E+02
 0.30596770278E+02 0.28007194374E+02 0.25682851994E+02 0.23673566338E+02 0.21935811172E+02
 0.20357363972E+02 0.18815085598E+02 0.17240643946E+02 0.15662514892E+02 0.14204056245E+02 0.13041179148E+02 0.12342833468E+02 0.12219855767E+02 0.12695549070E+02 0.13699798525E+02 0.15086673520E+02 0.16676270255E+02 0.18313557616E+02 0.19922415272E+02 0.21527478498E+02 0.23230080543E+02 0.25149516185E+02 0.27358943700E+02 0.29845563659E+02 0.32510068452E+02 0.35200875274E+02 0.37773379473E+02 0.40151789060E+02 0.42303286085E+02 0.44218413057E+02 0.45893277401E+02 0.47315898802E+02 0.48463369337E+02 0.49307875270E+02 0.49825009262E+02 0.49999133897E+02 0.49825009262E+02 0.49307875270E+02 0.48463369337E+02 0.47315898802E+02 0.45893277401E+02 0.44218413057E+02 0.42303286085E+02 0.40151789060E+02 0.37773379473E+02 0.35200875274E+02 0.32510068452E+02 0.29845563659E+02 0.27358943700E+02 0.25149516185E+02 0.23230080543E+02 0.21527478498E+02 0.19922415272E+02 0.18313557616E+02 0.16676270255E+02
 0.15086673520E+02 0.13699798525E+02 0.12695549070E+02 0.12219855767E+02 0.12342833468E+02
 0.13041179148E+02 0.14204056245E+02 0.15662514892E+02 0.17240643946E+02 0.18815085598E+02
 0.20357363972E+02 0.21935811172E+02 0.23673566338E+02 0.25682851994E+02 0.28007194374E+02
 0.30596770278E+02 0.33323934820E+02 0.36027775794E+02 0.38585813098E+02 0.40941061976E+02
 0.43069118284E+02 0.44961842003E+02 0.46609944118E+02 0.47993561513E+02 0.49084006180E+02
 0.49851849274E+02 0.50274355336E+02 0.50338868063E+02 0.50043330951E+02 0.49396413084E+02
 0.48417506260E+02 0.47134367682E+02 0.45576631734E+02 0.43767235323E+02 0.41717978560E+02
 0.39435405164E+02 0.36936796753E+02 0.34267173749E+02 0.31526091944E+02 0.28871580655E+02
 0.26446898656E+02 0.24329304034E+02 0.22504225806E+02 0.20877279462E+02 0.19323382320E+02
 0.17752984064E+02 0.16164042467E+02 0.14654077943E+02 0.13388153215E+02 0.12541488970E+02
 0.12541488970E+02 0.13113573877E+02 0.14168528871E+02 0.15551967069E+02 0.17091527210E+02
 0.18655475702E+02 0.20198933798E+02 0.21773508835E+02 0.23493010083E+02 0.25471456914E+02
 0.27763475042E+02 0.30333713892E+02 0.33065595852E+02 0.35800976374E+02 0.38406166794E+02
 0.40815714224E+02 0.43000141137E+02 0.44949101874E+02 0.46653598148E+02 0.48094732507E+02
 0.49243851219E+02 0.50070265681E+02 0.50549377804E+02 0.50666859984E+02 0.50419348810E+02
 0.49814276897E+02 0.48869878902E+02 0.47613606456E+02 0.46076662519E+02 0.44285520747E+02
 0.42255882693E+02 0.39995832113E+02 0.37519841280E+02 0.34866188002E+02 0.32118144273E+02
 0.29426076183E+02 0.26940884616E+02 0.24757165002E+02 0.22881014800E+02 0.21233119994E+02
 0.19690463959E+02 0.18150573678E+02 0.16588458693E+02 0.15078328279E+02 0.13770932945E+02
 0.12840866763E+02 0.12429773129E+02 0.12605536619E+02 0.13344565539E+02 0.14537557013E+02
 0.16019422955E+02 0.17620787421E+02 0.19226328995E+02 0.20813983593E+02 0.22453059660E+02
 0.24260114829E+02 0.26334562001E+02 0.28705316193E+02 0.31311372515E+02 0.34020866126E+02
 0.36677078459E+02 0.39170409611E+02 0.41451351668E+02 0.43500645494E+02 0.45312969524E+02
 0.46880074309E+02 0.48182770038E+02 0.49193581602E+02 0.49884834144E+02 0.50235761833E+02
 0.50235750260E+02 0.49884828552E+02 0.49193608137E+02 0.48182791577E+02 0.46880056956E+02
 0.45312950345E+02 0.43500664772E+02 0.41451374799E+02 0.39170391566E+02 0.36677051516E+02
 0.34020880455E+02 0.31311398647E+02 0.28705297740E+02 0.26334524177E+02 0.24260122154E+02
 0.22453096407E+02 0.20813979563E+02 0.19226285937E+02 0.17620776104E+02 0.16019462358E+02
 0.14537597787E+02 0.13344590462E+02 0.12605572736E+02 0.12429799965E+02 0.12840824075E+02
 0.13770839952E+02 0.15078285576E+02 0.16588497984E+02 0.18150609960E+02 0.19690439136E+02
 0.21233089823E+02 0.22881036398E+02 0.24757197057E+02 0.26940872768E+02 0.29426052578E+02
 0.32118159733E+02 0.34866214980E+02 0.37519829675E+02 0.39995804389E+02 0.42255888195E+02
 0.44285543063E+02 0.46076656461E+02 0.47613586351E+02 0.48869886382E+02 0.49814296177E+02
 0.50419337972E+02 0.50666836292E+02 0.50549387232E+02 0.50070293091E+02 0.49243846700E+02
 0.48094706088E+02 0.46653600665E+02 0.44949127816E+02 0.43000140545E+02 0.40815690576E+02
 0.38406170399E+02 0.35801004506E+02 0.33065594219E+02 0.30333680579E+02 0.27763467026E+02
 0.25471483109E+02 0.23493015046E+02 0.21773479598E+02 0.20198923782E+02 0.18655498632E+02
 0.17091530758E+02 0.15551946369E+02 0.14168557177E+02 0.13113666823E+02 0.12541544148E+02
 0.13388153215E+02 0.14168528871E+02 0.15337550528E+02 0.16739231989E+02 0.18231249499E+02
 0.19736209503E+02 0.21267277604E+02 0.22912994218E+02 0.24787284727E+02 0.26968947746E+02
 0.29458766309E+02 0.32171635586E+02 0.34963502550E+02 0.37682630469E+02 0.40238134636E+02
 0.42586572820E+02 0.44708954720E+02 0.46594234752E+02 0.48224694270E+02 0.49571554222E+02
 0.50600530345E+02 0.51280921638E+02 0.51591903427E+02 0.51524286820E+02 0.51080162135E+02
 0.50272965078E+02 0.49127412831E+02 0.47676439876E+02 0.45953769734E+02 0.43985309046E+02
 0.41786100985E+02 0.39367997341E+02 0.36755944904E+02 0.34003665490E+02 0.31223894387E+02
 0.28573582647E+02 0.26183121118E+02 0.24112303735E+02 0.22332782392E+02 0.20747448665E+02
 0.19241646538E+02 0.17744233730E+02 0.16269305836E+02 0.14918549886E+02 0.13845502175E+02
 0.13201694457E+02 0.13088217975E+02 0.13526590309E+02 0.14452707823E+02 0.15734583007E+02
 0.17212988740E+02 0.18755878977E+02 0.20305548939E+02 0.21894620343E+02 0.23620378418E+02
 0.25589213348E+02 0.27858496661E+02 0.30402718268E+02 0.33116583010E+02 0.35849527859E+02
 0.38465450866E+02 0.40894678747E+02 0.43105111845E+02 0.45085075637E+02 0.46825991806E+02
 0.48310176183E+02 0.49509623734E+02 0.50393004795E+02 0.50934001818E+02 0.51116152145E+02
 0.50933998469E+02 0.50393001898E+02 0.49509624401E+02 0.48310179427E+02 0.46825994121E+02
 0.45085075151E+02 0.43105109889E+02 0.40894677604E+02 0.38465451142E+02 0.35849528518E+02
 0.33116583161E+02 0.30402718054E+02 0.27858496572E+02 0.25589213442E+02 0.23620378456E+02
 0.21894620265E+02 0.20305548884E+02 0.18755879007E+02 0.17212988784E+02 0.15734583019E+02
 0.14452707836E+02 0.13526590340E+02 0.13088217992E+02 0.13201694441E+02 0.13845502150E+02
 0.14918549881E+02 0.16269305849E+02 0.17744233744E+02 0.19241646547E+02 0.20747448678E+02
 0.22332782419E+02 0.24112303765E+02 0.26183121124E+02 0.28573582628E+02 0.31223894374E+02
 0.34003665495E+02 0.36755944899E+02 0.39367997327E+02 0.41786101022E+02 0.43985309143E+02
 0.45953769750E+02 0.47676439678E+02 0.49127412554E+02 0.50272965081E+02 0.51080162580E+02
 0.51524287376E+02 0.51591903553E+02 0.51280921180E+02 0.50600529740E+02 0.49571554031E+02
 0.48224694575E+02 0.46594235124E+02 0.44708954757E+02 0.42586572590E+02 0.40238134502E+02
 0.37682630589E+02 0.34963502734E+02 0.32171635611E+02 0.29458766205E+02 0.26968947673E+02
 0.24787284732E+02 0.22912994229E+02 0.21267277596E+02 0.19736209512E+02 0.18231249522E+02
 0.16739231982E+02 0.15337550501E+02 0.14168528878E+02 0.13388153248E+02 0.13113666823E+02
 0.14654077943E+02 0.15551967069E+02 0.16739231989E+02 0.18085194061E+02 0.19499891363E+02
 0.20967837733E+02 0.22548818364E+02 0.24343101890E+02 0.26437410206E+02 0.28857357007E+02
 0.31547198078E+02 0.34383401952E+02 0.37213827599E+02 0.39923772097E+02 0.42455697107E+02
 0.44779814535E+02 0.46879225331E+02 0.48733970896E+02 0.50313022567E+02 0.51577151459E+02
 0.52488045828E+02 0.53016612291E+02 0.53146514092E+02 0.52873993197E+02 0.52207356683E+02
 0.51167529344E+02 0.49787429999E+02 0.48106982251E+02 0.46164011212E+02 0.43986296132E+02
 0.41591769211E+02 0.38999566566E+02 0.36246394820E+02 0.33402653798E+02 0.30601930380E+02
 0.27993119829E+02 0.25682099563E+02 0.23698947228E+02 0.21994335910E+02 0.20469813196E+02
 0.19030427058E+02 0.17635864668E+02 0.16325674723E+02 0.15207485947E+02 0.14416601256E+02
 0.14067556047E+02 0.14216538214E+02 0.14844166993E+02 0.15861226332E+02 0.17137099659E+02
 0.18545318730E+02 0.20010637868E+02 0.21535666672E+02 0.23191780347E+02 0.25077152942E+02
 0.27262192653E+02 0.29748215812E+02 0.32457021686E+02 0.35253235906E+02 0.37990318841E+02
 0.40576646493E+02 0.42967348305E+02 0.45141400990E+02 0.47086066009E+02 0.48782356329E+02
 0.50200092585E+02 0.51302981923E+02 0.52057764033E+02 0.52440953087E+02 0.52440960633E+02
 0.52057769196E+02 0.51302968269E+02 0.50200080495E+02 0.48782365057E+02 0.47086075031E+02
 0.45141388818E+02 0.42967335367E+02 0.40576656752E+02 0.37990332538E+02 0.35253227241E+02
 0.32457010842E+02 0.29748231454E+02 0.27262213001E+02 0.25077142571E+02 0.23191759678E+02
 0.21535679770E+02 0.20010669627E+02 0.18545313948E+02 0.17137055131E+02 0.15861192575E+02
 0.14844160468E+02 0.14216526066E+02 0.14067535157E+02 0.14416615384E+02 0.15207542651E+02
 0.16325716986E+02 0.17635857182E+02 0.19030407446E+02 0.20469820952E+02 0.21994349581E+02
 0.23698935545E+02 0.25682081988E+02 0.27993126145E+02 0.30601943287E+02 0.33402643774E+02
 0.36246377204E+02 0.38999572203E+02 0.41591786926E+02 0.43986295368E+02 0.46163998326E+02
 0.48106984321E+02 0.49787442200E+02 0.51167527473E+02 0.52207345918E+02 0.52873996452E+02
 0.53146525313E+02 0.53016608371E+02 0.52488033256E+02 0.51577154374E+02 0.50313034861E+02
 0.48733967515E+02 0.46879211929E+02 0.44779816981E+02 0.42455709450E+02 0.39923766571E+02
 0.37213811055E+02 0.34383407484E+02 0.31547221665E+02 0.28857360168E+02 0.26437389974E+02
 0.24343098470E+02 0.22548842585E+02 0.20967851163E+02 0.19499875339E+02 0.18085177879E+02
 0.16739229350E+02 0.15551946367E+02 0.14654029010E+02 0.14168528878E+02 0.14168557177E+02
 0.16164042467E+02 0.17091527210E+02 0.18231249499E+02 0.19499891363E+02 0.20868509749E+02
 0.22373419137E+02 0.24095720173E+02 0.26117978039E+02 0.28478515998E+02 0.31144293458E+02
 0.34013334086E+02 0.36943495857E+02 0.39805930667E+02 0.42529732476E+02 0.45074550128E+02
 0.47415634795E+02 0.49528163297E+02 0.51376570634E+02 0.52914726313E+02 0.54094600061E+02
 0.54876373875E+02 0.55234233968E+02 0.55157072313E+02 0.54647375128E+02 0.53721394016E+02
 0.52410046325E+02 0.50756937259E+02 0.48810996539E+02 0.46616070063E+02 0.44204193581E+02
 0.41598767473E+02 0.38827627744E+02 0.35938012521E+02 0.33016402044E+02 0.30203541488E+02
 0.27633407797E+02 0.25388588901E+02 0.23478243065E+02 0.21845063341E+02 0.20400091690E+02
 0.19070477315E+02 0.17838029472E+02 0.16750672819E+02 0.15903169159E+02 0.15398750260E+02
 0.15309866975E+02 0.15652438134E+02 0.16380416108E+02 0.17401940387E+02 0.18613491558E+02
 0.19941009412E+02 0.21370036100E+02 0.22948551691E+02 0.24758943050E+02 0.26871973842E+02
 0.29304773554E+02 0.32001855172E+02 0.34846177338E+02 0.37694011240E+02 0.40436088869E+02
 0.43015935367E+02 0.45402668738E+02 0.47577035292E+02 0.49516103781E+02 0.51185449448E+02
 0.52542048658E+02 0.53543635195E+02 0.54157456790E+02 0.54364139145E+02 0.54157462037E+02
 0.53543641598E+02 0.52542052059E+02 0.51185449215E+02 0.49516102365E+02 0.47577034936E+02
 0.45402669363E+02 0.43015935530E+02 0.40436087899E+02 0.37694009868E+02 0.34846176564E+02
 0.32001855180E+02 0.29304773838E+02 0.26871973984E+02 0.24758943041E+02 0.22948551679E+02
 0.21370036123E+02 0.19941009430E+02 0.18613491557E+02 0.17401940375E+02 0.16380416075E+02
 0.15652438080E+02 0.15309866938E+02 0.15398750267E+02 0.15903169195E+02 0.16750672851E+02
 0.17838029487E+02 0.19070477308E+02 0.20400091647E+02 0.21845063269E+02 0.23478243008E+02
 0.25388588896E+02 0.27633407836E+02 0.30203541529E+02 0.33016402062E+02 0.35938012505E+02
 0.38827627680E+02 0.41598767363E+02 0.44204193501E+02 0.46616070166E+02 0.48810996939E+02
 0.50756937860E+02 0.52410046759E+02 0.53721393861E+02 0.54647374297E+02 0.55157071244E+02
 0.55234233315E+02 0.54876373927E+02 0.54094600512E+02 0.52914726656E+02 0.51376570709E+02
 0.49528163360E+02 0.47415635092E+02 0.45074550555E+02 0.42529732724E+02 0.39805930588E+02
 0.36943495594E+02 0.34013333874E+02 0.31144293399E+02 0.28478516039E+02 0.26117978084E+02
 0.24095720181E+02 0.22373419123E+02 0.20868509737E+02 0.19499891363E+02 0.18231249503E+02
 0.17091527212E+02 0.16164042465E+02 0.15551946367E+02 0.15337550501E+02 0.15551946369E+02
 0.17752984064E+02 0.18655475702E+02 0.19736209503E+02 0.20967837733E+02 0.22373419137E+02
 0.24016599968E+02 0.25969718063E+02 0.28274298867E+02 0.30912318843E+02 0.33801000933E+02
 0.36812502621E+02 0.39814997807E+02 0.42726812650E+02 0.45499165872E+02 0.48099313416E+02
 0.50496160991E+02 0.52648006857E+02 0.54500179756E+02 0.55992737262E+02 0.57072133747E+02
 0.57699803209E+02 0.57854680039E+02 0.57531921763E+02 0.56742069175E+02 0.55512242997E+02
 0.53886677690E+02 0.51922439131E+02 0.49679405495E+02 0.47208999932E+02 0.44549058090E+02
 0.41729518250E+02 0.38786395267E+02 0.35775099188E+02 0.32793684615E+02 0.29979077220E+02
 0.27448435478E+02 0.25265301949E+02 0.23426779679E+02 0.21876677585E+02 0.20539536627E+02
 0.19360157271E+02 0.18330302775E+02 0.17491016830E+02 0.16911810675E+02 0.16658732085E+02
 0.16766110812E+02 0.17222597033E+02 0.17975918098E+02 0.18955000302E+02 0.20101784725E+02
 0.21399017025E+02 0.22879342903E+02 0.24608844980E+02 0.26651429608E+02 0.29030794631E+02
 0.31707805158E+02 0.34583138499E+02 0.37522995416E+02 0.40409162191E+02 0.43175593463E+02
 0.45782755965E+02 0.48204217029E+02 0.50411598044E+02 0.52364592864E+02 0.54011657230E+02
 0.55299189835E+02 0.56182268114E+02 0.56630933189E+02 0.56630932523E+02 0.56182267978E+02
 0.55299192544E+02 0.54011662080E+02 0.52364598291E+02 0.50411603299E+02 0.48204219940E+02
 0.45782754311E+02 0.43175590060E+02 0.40409161779E+02 0.37522995293E+02 0.34583131923E+02
 0.31707796162E+02 0.29030795819E+02 0.26651439294E+02 0.24608843372E+02 0.22879323935E+02
 0.21399007386E+02 0.20101809873E+02 0.18955042656E+02 0.17975935922E+02 0.17222581824E+02
 0.16766096976E+02 0.16658743961E+02 0.16911827999E+02 0.17491007953E+02 0.18330270449E+02
 0.19360130629E+02 0.20539530894E+02 0.21876683182E+02 0.23426784705E+02 0.25265305149E+02
 0.27448437582E+02 0.29979076286E+02 0.32793682856E+02 0.35775102249E+02 0.38786401861E+02
 0.41729520248E+02 0.44549053249E+02 0.47208995540E+02 0.49679406579E+02 0.51922441321E+02
 0.53886675725E+02 0.55512239489E+02 0.56742069895E+02 0.57531926439E+02 0.57854682677E+02
 0.57699800086E+02 0.57072128044E+02 0.55992735504E+02 0.54500184159E+02 0.52648012067E+02
 0.50496160708E+02 0.48099309873E+02 0.45499167286E+02 0.42726819351E+02 0.39814998874E+02
 0.36812492527E+02 0.33800991424E+02 0.30912323200E+02 0.28274309750E+02 0.25969715746E+02
 0.24016582300E+02 0.22373408086E+02 0.20967851173E+02 0.19736238821E+02 0.18655498639E+02
 0.17752990355E+02 0.17091527212E+02 0.16739229350E+02 0.16739231982E+02 0.17091530758E+02
 0.19323382320E+02 0.20198933798E+02 0.21267277604E+02 0.22548818364E+02 0.24095720173E+02
 0.25969718063E+02 0.28210405536E+02 0.30808627724E+02 0.33697376512E+02 0.36764259161E+02
 0.39882949972E+02 0.42965785905E+02 0.45958339580E+02 0.48821183063E+02 0.51516967329E+02
 0.53997295647E+02 0.56198131868E+02 0.58046140206E+02 0.59471358780E+02 0.60418717156E+02
 0.60853417718E+02 0.60760591978E+02 0.60143494207E+02 0.59023813863E+02 0.57443446238E+02
 0.55463458348E+02 0.53156676914E+02 0.50595100045E+02 0.47838358415E+02 0.44930453892E+02
 0.41907527607E+02 0.38812008794E+02 0.35704636460E+02 0.32687859799E+02 0.29888603367E+02
 0.27407591477E+02 0.25293927608E+02 0.23538928914E+02 0.22091545489E+02 0.20888342097E+02
 0.19884138938E+02 0.19069508217E+02 0.18468673095E+02 0.18121570238E+02 0.18060730963E+02
 0.18294190707E+02 0.18801587454E+02 0.19545005098E+02 0.20490198823E+02 0.21628384508E+02
 0.22986607716E+02 0.24618957827E+02 0.26580620045E+02 0.28896269013E+02 0.31537703692E+02
 0.34421250725E+02 0.37426052305E+02 0.40433540749E+02 0.43371416250E+02 0.46193744946E+02
 0.48867569356E+02 0.51358717214E+02 0.53620330758E+02 0.55591349702E+02 0.57204975076E+02
 0.58401100015E+02 0.59135582283E+02 0.59383084937E+02 0.59135582266E+02 0.58401099555E+02
 0.57204974349E+02 0.55591349702E+02 0.53620332029E+02 0.51358718846E+02 0.48867569850E+02
 0.46193743956E+02 0.43371414923E+02 0.40433540295E+02 0.37426052735E+02 0.34421251204E+02
 0.31537703705E+02 0.28896268770E+02 0.26580619919E+02 0.24618957852E+02 0.22986607720E+02
 0.21628384442E+02 0.20490198784E+02 0.19545005138E+02 0.18801587518E+02 0.18294190728E+02
 0.18060730938E+02 0.18121570202E+02 0.18468673064E+02 0.19069508179E+02 0.19884138891E+02
 0.20888342069E+02 0.22091545508E+02 0.23538928955E+02 0.25293927616E+02 0.27407591443E+02
 0.29888603337E+02 0.32687859780E+02 0.35704636404E+02 0.38812008711E+02 0.41907527598E+02
 0.44930454000E+02 0.47838358492E+02 0.50595099906E+02 0.53156676596E+02 0.55463458121E+02
 0.57443446317E+02 0.59023814188E+02 0.60143494544E+02 0.60760592155E+02 0.60853417722E+02
 0.60418717045E+02 0.59471358589E+02 0.58046139967E+02 0.56198131670E+02 0.53997295608E+02
 0.51516967466E+02 0.48821183234E+02 0.45958339629E+02 0.42965785852E+02 0.39882949973E+02
 0.36764259280E+02 0.33697376624E+02 0.30808627704E+02 0.28210405436E+02 0.25969718019E+02
 0.24095720204E+02 0.22548818389E+02 0.21267277599E+02 0.20198933806E+02 0.19323382350E+02
 0.18655498639E+02 0.18231249503E+02 0.18085177879E+02 0.18231249522E+02 0.18655498632E+02
 0.20877279462E+02 0.21773508835E+02 0.22912994218E+02 0.24343101890E+02 0.26117978039E+02
 0.28274298867E+02 0.30808627724E+02 0.33667156865E+02 0.36753112338E+02 0.39950923453E+02
 0.43173191297E+02 0.46362825290E+02 0.49475664605E+02 0.52469049898E+02 0.55288415905E+02
 0.57860710750E+02 0.60098923326E+02 0.61915017231E+02 0.63234109789E+02 0.64003393858E+02
